# vtk DataFile Version 3.0
Generated by MFEM
ASCII
DATASET UNSTRUCTURED_GRID
POINTS 159 double
0 0 0
1 0 0
0 1 0
1 1 0
0.03125 0 0
0.03125 0.03125 0
0 0.03125 0
0.0625 0 0
0.0625 0.03125 0
0.0625 0.0625 0
0.03125 0.0625 0
0 0.0625 0
0.03125 0.09375 0
0 0.09375 0
0.03125 0.125 0
0 0.125 0
0.0625 0.09375 0
0.0625 0.125 0
0.125 0.0625 0
0.125 0.125 0
0.125 0 0
0.1875 0 0
0.1875 0.0625 0
0.25 0 0
0.25 0.0625 0
0.25 0.125 0
0.1875 0.125 0
0.25 0.25 0
0.125 0.25 0
0.0625 0.1875 0
0.125 0.1875 0
0.0625 0.25 0
0 0.1875 0
0 0.25 0
0.125 0.375 0
0 0.375 0
0.125 0.5 0
0 0.5 0
0.25 0.375 0
0.25 0.5 0
0.3125 0.25 0
0.3125 0.3125 0
0.25 0.3125 0
0.375 0.25 0
0.375 0.3125 0
0.375 0.375 0
0.3125 0.375 0
0.3125 0.4375 0
0.25 0.4375 0
0.3125 0.5 0
0.375 0.4375 0
0.375 0.5 0
0.4375 0.375 0
0.4375 0.4375 0
0.4375 0.5 0
0.5 0.4375 0
0.5 0.5 0
0.5 0.375 0
0.4375 0.3125 0
0.5 0.3125 0
0.4375 0.25 0
0.5 0.25 0
0.375 0.125 0
0.5 0.125 0
0.375 0 0
0.5 0 0
0.625 0 0
0.625 0.125 0
0.625 0.25 0
0.75 0.125 0
0.75 0.25 0
0.75 0 0
0.875 0 0
0.875 0.125 0
1 0.125 0
1 0.25 0
0.875 0.25 0
0.875 0.375 0
0.75 0.375 0
1 0.375 0
1 0.5 0
0.875 0.5 0
0.75 0.5 0
0.6875 0.4375 0
0.75 0.4375 0
0.6875 0.5 0
0.625 0.4375 0
0.625 0.5 0
0.625 0.375 0
0.6875 0.375 0
0.6875 0.3125 0
0.75 0.3125 0
0.6875 0.25 0
0.625 0.3125 0
0.5625 0.3125 0
0.5625 0.375 0
0.5625 0.25 0
0.5625 0.4375 0
0.5625 0.5 0
0.5625 0.5625 0
0.5 0.5625 0
0.625 0.5625 0
0.625 0.625 0
0.5625 0.625 0
0.5 0.625 0
0.5625 0.6875 0
0.5 0.6875 0
0.5625 0.75 0
0.5 0.75 0
0.625 0.6875 0
0.625 0.75 0
0.6875 0.625 0
0.6875 0.6875 0
0.6875 0.75 0
0.75 0.6875 0
0.75 0.75 0
0.75 0.625 0
0.6875 0.5625 0
0.75 0.5625 0
0.875 0.625 0
1 0.625 0
1 0.75 0
0.875 0.75 0
0.875 0.875 0
0.75 0.875 0
1 0.875 0
0.875 1 0
0.75 1 0
0.625 0.875 0
0.625 1 0
0.5 0.875 0
0.5 1 0
0.375 0.875 0
0.375 1 0
0.25 0.875 0
0.25 1 0
0.25 0.75 0
0.375 0.75 0
0.4375 0.6875 0
0.4375 0.75 0
0.375 0.6875 0
0.375 0.625 0
0.4375 0.625 0
0.4375 0.5625 0
0.375 0.5625 0
0.3125 0.5625 0
0.3125 0.625 0
0.25 0.5625 0
0.25 0.625 0
0.3125 0.6875 0
0.25 0.6875 0
0.3125 0.75 0
0.125 0.625 0
0.125 0.75 0
0 0.625 0
0 0.75 0
0.125 0.875 0
0 0.875 0
0.125 1 0
CELLS 127 635
4 0 4 5 6
4 4 7 8 5
4 5 8 9 10
4 6 5 10 11
4 11 10 12 13
4 13 12 14 15
4 12 16 17 14
4 10 9 16 12
4 9 18 19 17
4 7 20 18 9
4 20 21 22 18
4 21 23 24 22
4 22 24 25 26
4 18 22 26 19
4 19 25 27 28
4 29 30 28 31
4 17 19 30 29
4 15 17 29 32
4 32 29 31 33
4 33 28 34 35
4 35 34 36 37
4 34 38 39 36
4 28 27 38 34
4 27 40 41 42
4 40 43 44 41
4 41 44 45 46
4 42 41 46 38
4 38 46 47 48
4 48 47 49 39
4 47 50 51 49
4 46 45 50 47
4 45 52 53 50
4 50 53 54 51
4 53 55 56 54
4 52 57 55 53
4 58 59 57 52
4 44 58 52 45
4 43 60 58 44
4 60 61 59 58
4 62 63 61 43
4 25 62 43 27
4 23 64 62 25
4 64 65 63 62
4 65 66 67 63
4 63 67 68 61
4 67 69 70 68
4 66 71 69 67
4 71 72 73 69
4 72 1 74 73
4 73 74 75 76
4 69 73 76 70
4 70 76 77 78
4 76 75 79 77
4 77 79 80 81
4 78 77 81 82
4 83 84 82 85
4 86 83 85 87
4 88 89 83 86
4 89 78 84 83
4 90 91 78 89
4 92 70 91 90
4 68 92 90 93
4 93 90 89 88
4 94 93 88 95
4 96 68 93 94
4 61 96 94 59
4 59 94 95 57
4 57 95 97 55
4 95 88 86 97
4 97 86 87 98
4 55 97 98 56
4 56 98 99 100
4 98 87 101 99
4 99 101 102 103
4 100 99 103 104
4 104 103 105 106
4 106 105 107 108
4 105 109 110 107
4 103 102 109 105
4 102 111 112 109
4 109 112 113 110
4 112 114 115 113
4 111 116 114 112
4 117 118 116 111
4 101 117 111 102
4 87 85 117 101
4 85 82 118 117
4 82 81 119 116
4 81 80 120 119
4 119 120 121 122
4 116 119 122 115
4 115 122 123 124
4 122 121 125 123
4 123 125 3 126
4 124 123 126 127
4 128 124 127 129
4 110 115 124 128
4 108 110 128 130
4 130 128 129 131
4 132 130 131 133
4 134 132 133 135
4 136 137 132 134
4 137 108 130 132
4 138 106 108 139
4 140 138 139 137
4 141 142 138 140
4 142 104 106 138
4 143 100 104 142
4 54 56 100 143
4 51 54 143 144
4 144 143 142 141
4 145 144 141 146
4 49 51 144 145
4 39 49 145 147
4 147 145 146 148
4 148 146 149 150
4 146 141 140 149
4 149 140 137 151
4 150 149 151 136
4 152 148 136 153
4 36 39 148 152
4 37 36 152 154
4 154 152 153 155
4 155 153 156 157
4 153 136 134 156
4 156 134 135 158
4 157 156 158 2
CELL_TYPES 127
9
9
9
9
9
9
9
9
9
9
9
9
9
9
9
9
9
9
9
9
9
9
9
9
9
9
9
9
9
9
9
9
9
9
9
9
9
9
9
9
9
9
9
9
9
9
9
9
9
9
9
9
9
9
9
9
9
9
9
9
9
9
9
9
9
9
9
9
9
9
9
9
9
9
9
9
9
9
9
9
9
9
9
9
9
9
9
9
9
9
9
9
9
9
9
9
9
9
9
9
9
9
9
9
9
9
9
9
9
9
9
9
9
9
9
9
9
9
9
9
9
9
9
9
9
9
9
CELL_DATA 127
SCALARS material int
LOOKUP_TABLE default
1
1
1
1
1
1
1
1
1
1
1
1
1
1
1
1
1
1
1
1
1
1
1
1
1
1
1
1
1
1
1
1
1
1
1
1
1
1
1
1
1
1
1
1
1
1
1
1
1
1
1
1
1
1
1
1
1
1
1
1
1
1
1
1
1
1
1
1
1
1
1
1
1
1
1
1
1
1
1
1
1
1
1
1
1
1
1
1
1
1
1
1
1
1
1
1
1
1
1
1
1
1
1
1
1
1
1
1
1
1
1
1
1
1
1
1
1
1
1
1
1
1
1
1
1
1
1
