# vtk DataFile Version 3.0
Generated by MFEM
ASCII
DATASET UNSTRUCTURED_GRID
POINTS 41 double
0 0 0
1 0 0
0 1 0
1 1 0
0.25 0 0
0.25 0.25 0
0 0.25 0
0.25 0.5 0
0 0.5 0
0.375 0.25 0
0.375 0.375 0
0.25 0.375 0
0.375 0.5 0
0.5 0.375 0
0.5 0.5 0
0.5 0.25 0
0.5 0 0
0.75 0 0
0.75 0.25 0
1 0.25 0
1 0.5 0
0.75 0.5 0
0.625 0.375 0
0.75 0.375 0
0.625 0.5 0
0.625 0.25 0
0.625 0.625 0
0.5 0.625 0
0.625 0.75 0
0.5 0.75 0
0.75 0.625 0
0.75 0.75 0
1 0.75 0
0.75 1 0
0.5 1 0
0.25 0.75 0
0.25 1 0
0.375 0.625 0
0.375 0.75 0
0.25 0.625 0
0 0.75 0
CELLS 28 140
4 0 4 5 6
4 6 5 7 8
4 5 9 10 11
4 11 10 12 7
4 10 13 14 12
4 9 15 13 10
4 4 16 15 5
4 16 17 18 15
4 17 1 19 18
4 18 19 20 21
4 22 23 21 24
4 25 18 23 22
4 15 25 22 13
4 13 22 24 14
4 14 24 26 27
4 27 26 28 29
4 26 30 31 28
4 24 21 30 26
4 21 20 32 31
4 31 32 3 33
4 29 31 33 34
4 35 29 34 36
4 37 27 29 38
4 12 14 27 37
4 7 12 37 39
4 39 37 38 35
4 8 7 35 40
4 40 35 36 2
CELL_TYPES 28
9
9
9
9
9
9
9
9
9
9
9
9
9
9
9
9
9
9
9
9
9
9
9
9
9
9
9
9
CELL_DATA 28
SCALARS material int
LOOKUP_TABLE default
1
1
1
1
1
1
1
1
1
1
1
1
1
1
1
1
1
1
1
1
1
1
1
1
1
1
1
1
