# vtk DataFile Version 3.0
Generated by MFEM
ASCII
DATASET UNSTRUCTURED_GRID
POINTS 117 double
0 -1 -1
1 -1 -1
-1 0 -1
0 0 -1
1 0 -1
-1 1 -1
0 1 -1
1 1 -1
-1 -1 0
0 -1 0
1 -1 0
-1 0 0
0 0 0
1 0 0
-1 1 0
0 1 0
1 1 0
-1 -1 1
0 -1 1
1 -1 1
-1 0 1
0 0 1
1 0 1
-1 1 1
0 1 1
1 1 1
0.5 -1 -1
0.5 -0.5 -1
0 -0.5 -1
0 -1 -0.5
0.5 -1 -0.5
0.5 -0.5 -0.5
0 -0.5 -0.5
0.5 -1 0
0.5 -0.5 0
0 -0.5 0
1 -1 -0.5
1 -0.5 -0.5
1 -0.5 0
1 -0.5 -1
0.5 0 -1
1 0 -0.5
0.5 0 -0.5
0.5 0 0
0 0 -0.5
0.5 0.5 -1
0 0.5 -1
0.5 0.5 -0.5
0 0.5 -0.5
1 0.5 -1
1 0.5 -0.5
0.5 1 -1
1 1 -0.5
0.5 1 -0.5
0 1 -0.5
0 0.5 0
0.5 0.5 0
0.5 1 0
1 0.5 0
-0.5 0 -0.5
-0.5 0.5 -0.5
-0.5 0 0
-0.5 0.5 0
-0.5 0 -1
-0.5 0.5 -1
-1 0.5 -1
-1 0 -0.5
-1 0.5 -0.5
-1 0.5 0
-0.5 1 -0.5
-1 1 -0.5
-0.5 1 0
-0.5 1 -1
-0.5 0.5 0.5
0 0.5 0.5
0 1 0.5
-0.5 1 0.5
-1 0.5 0.5
-1 1 0.5
-1 0 0.5
-0.5 0 0.5
0 0 0.5
-0.5 0 1
0 0.5 1
-0.5 0.5 1
-1 0.5 1
-0.5 1 1
0.5 0.5 0.5
0.5 1 0.5
0.5 0.5 1
0.5 1 1
1 0.5 0.5
1 1 0.5
1 0.5 1
0.5 0 0.5
1 0 0.5
0.5 0 1
0 -0.5 0.5
0.5 -0.5 0.5
0 -0.5 1
0.5 -0.5 1
1 -0.5 0.5
1 -0.5 1
0.5 -1 0.5
1 -1 0.5
0.5 -1 1
0 -1 0.5
-0.5 -1 0.5
-0.5 -0.5 0.5
-0.5 -1 1
-0.5 -0.5 1
-0.5 -1 0
-0.5 -0.5 0
-1 -0.5 0
-1 -1 0.5
-1 -0.5 0.5
-1 -0.5 1
CELLS 56 504
8 0 26 27 28 29 30 31 32
8 29 30 31 32 9 33 34 35
8 30 36 37 31 33 10 38 34
8 26 1 39 27 30 36 37 31
8 27 39 4 40 31 37 41 42
8 31 37 41 42 34 38 13 43
8 32 31 42 44 35 34 43 12
8 28 27 40 3 32 31 42 44
8 3 40 45 46 44 42 47 48
8 40 4 49 45 42 41 50 47
8 45 49 7 51 47 50 52 53
8 46 45 51 6 48 47 53 54
8 48 47 53 54 55 56 57 15
8 47 50 52 53 56 58 16 57
8 42 41 50 47 43 13 58 56
8 44 42 47 48 12 43 56 55
8 59 44 48 60 61 12 55 62
8 63 3 46 64 59 44 48 60
8 2 63 64 65 66 59 60 67
8 66 59 60 67 11 61 62 68
8 67 60 69 70 68 62 71 14
8 65 64 72 5 67 60 69 70
8 64 46 6 72 60 48 54 69
8 60 48 54 69 62 55 15 71
8 62 55 15 71 73 74 75 76
8 68 62 71 14 77 73 76 78
8 11 61 62 68 79 80 73 77
8 61 12 55 62 80 81 74 73
8 80 81 74 73 82 21 83 84
8 79 80 73 77 20 82 84 85
8 77 73 76 78 85 84 86 23
8 73 74 75 76 84 83 24 86
8 74 87 88 75 83 89 90 24
8 55 56 57 15 74 87 88 75
8 56 58 16 57 87 91 92 88
8 87 91 92 88 89 93 25 90
8 94 95 91 87 96 22 93 89
8 43 13 58 56 94 95 91 87
8 12 43 56 55 81 94 87 74
8 81 94 87 74 21 96 89 83
8 97 98 94 81 99 100 96 21
8 35 34 43 12 97 98 94 81
8 34 38 13 43 98 101 95 94
8 98 101 95 94 100 102 22 96
8 103 104 101 98 105 19 102 100
8 33 10 38 34 103 104 101 98
8 9 33 34 35 106 103 98 97
8 106 103 98 97 18 105 100 99
8 107 106 97 108 109 18 99 110
8 111 9 35 112 107 106 97 108
8 8 111 112 113 114 107 108 115
8 114 107 108 115 17 109 110 116
8 115 108 80 79 116 110 82 20
8 113 112 61 11 115 108 80 79
8 112 35 12 61 108 97 81 80
8 108 97 81 80 110 99 21 82
CELL_TYPES 56
12
12
12
12
12
12
12
12
12
12
12
12
12
12
12
12
12
12
12
12
12
12
12
12
12
12
12
12
12
12
12
12
12
12
12
12
12
12
12
12
12
12
12
12
12
12
12
12
12
12
12
12
12
12
12
12
CELL_DATA 56
SCALARS material int
LOOKUP_TABLE default
1
1
1
1
1
1
1
1
1
1
1
1
1
1
1
1
1
1
1
1
1
1
1
1
1
1
1
1
1
1
1
1
1
1
1
1
1
1
1
1
1
1
1
1
1
1
1
1
1
1
1
1
1
1
1
1
