# vtk DataFile Version 3.0
Generated by MFEM
ASCII
DATASET UNSTRUCTURED_GRID
POINTS 150 double
0 -1 -1
1 -1 -1
-1 0 -1
0 0 -1
1 0 -1
-1 1 -1
0 1 -1
1 1 -1
-1 -1 0
0 -1 0
1 -1 0
-1 0 0
0 0 0
1 0 0
-1 1 0
0 1 0
1 1 0
-1 -1 1
0 -1 1
1 -1 1
-1 0 1
0 0 1
1 0 1
-1 1 1
0 1 1
1 1 1
0.25 -1 -1
0.25 -0.75 -1
0 -0.75 -1
0 -1 -0.75
0.25 -1 -0.75
0.25 -0.75 -0.75
0 -0.75 -0.75
0.5 -1 -1
0.5 -0.75 -1
0.5 -1 -0.75
0.5 -0.75 -0.75
0.5 -0.5 -1
0.25 -0.5 -1
0.5 -0.5 -0.75
0.25 -0.5 -0.75
0 -0.5 -1
0 -0.5 -0.75
0 -0.75 -0.5
0.25 -0.75 -0.5
0.25 -0.5 -0.5
0 -0.5 -0.5
0.5 -0.75 -0.5
0.5 -0.5 -0.5
0.25 -1 -0.5
0.5 -1 -0.5
0 -1 -0.5
0 -1 -0.25
0.25 -1 -0.25
0.25 -0.75 -0.25
0 -0.75 -0.25
0.25 -0.5 -0.25
0 -0.5 -0.25
0 -0.75 0
0.25 -0.75 0
0.25 -0.5 0
0 -0.5 0
0.25 -1 0
0.5 -1 -0.25
0.5 -0.75 -0.25
0.5 -1 0
0.5 -0.75 0
0.5 -0.5 -0.25
0.5 -0.5 0
1 -1 -0.5
1 -0.5 -0.5
1 -0.5 0
1 -0.5 -1
0.5 0 -1
1 0 -0.5
0.5 0 -0.5
0.5 0 0
0 0 -0.5
0.5 0.5 -1
0 0.5 -1
0.5 0.5 -0.5
0 0.5 -0.5
1 0.5 -1
1 0.5 -0.5
0.5 1 -1
1 1 -0.5
0.5 1 -0.5
0 1 -0.5
0 0.5 0
0.5 0.5 0
0.5 1 0
1 0.5 0
-0.5 0 -0.5
-0.5 0.5 -0.5
-0.5 0 0
-0.5 0.5 0
-0.5 0 -1
-0.5 0.5 -1
-1 0.5 -1
-1 0 -0.5
-1 0.5 -0.5
-1 0.5 0
-0.5 1 -0.5
-1 1 -0.5
-0.5 1 0
-0.5 1 -1
-0.5 0.5 0.5
0 0.5 0.5
0 1 0.5
-0.5 1 0.5
-1 0.5 0.5
-1 1 0.5
-1 0 0.5
-0.5 0 0.5
0 0 0.5
-0.5 0 1
0 0.5 1
-0.5 0.5 1
-1 0.5 1
-0.5 1 1
0.5 0.5 0.5
0.5 1 0.5
0.5 0.5 1
0.5 1 1
1 0.5 0.5
1 1 0.5
1 0.5 1
0.5 0 0.5
1 0 0.5
0.5 0 1
0 -0.5 0.5
0.5 -0.5 0.5
0 -0.5 1
0.5 -0.5 1
1 -0.5 0.5
1 -0.5 1
0.5 -1 0.5
1 -1 0.5
0.5 -1 1
0 -1 0.5
-0.5 -1 0.5
-0.5 -0.5 0.5
-0.5 -1 1
-0.5 -0.5 1
-0.5 -1 0
-0.5 -0.5 0
-1 -0.5 0
-1 -1 0.5
-1 -0.5 0.5
-1 -0.5 1
CELLS 70 630
8 0 26 27 28 29 30 31 32
8 26 33 34 27 30 35 36 31
8 27 34 37 38 31 36 39 40
8 28 27 38 41 32 31 40 42
8 32 31 40 42 43 44 45 46
8 31 36 39 40 44 47 48 45
8 30 35 36 31 49 50 47 44
8 29 30 31 32 51 49 44 43
8 51 49 44 43 52 53 54 55
8 43 44 45 46 55 54 56 57
8 55 54 56 57 58 59 60 61
8 52 53 54 55 9 62 59 58
8 53 63 64 54 62 65 66 59
8 54 64 67 56 59 66 68 60
8 44 47 48 45 54 64 67 56
8 49 50 47 44 53 63 64 54
8 50 69 70 48 65 10 71 68
8 33 1 72 37 50 69 70 48
8 37 72 4 73 48 70 74 75
8 48 70 74 75 68 71 13 76
8 46 48 75 77 61 68 76 12
8 41 37 73 3 46 48 75 77
8 3 73 78 79 77 75 80 81
8 73 4 82 78 75 74 83 80
8 78 82 7 84 80 83 85 86
8 79 78 84 6 81 80 86 87
8 81 80 86 87 88 89 90 15
8 80 83 85 86 89 91 16 90
8 75 74 83 80 76 13 91 89
8 77 75 80 81 12 76 89 88
8 92 77 81 93 94 12 88 95
8 96 3 79 97 92 77 81 93
8 2 96 97 98 99 92 93 100
8 99 92 93 100 11 94 95 101
8 100 93 102 103 101 95 104 14
8 98 97 105 5 100 93 102 103
8 97 79 6 105 93 81 87 102
8 93 81 87 102 95 88 15 104
8 95 88 15 104 106 107 108 109
8 101 95 104 14 110 106 109 111
8 11 94 95 101 112 113 106 110
8 94 12 88 95 113 114 107 106
8 113 114 107 106 115 21 116 117
8 112 113 106 110 20 115 117 118
8 110 106 109 111 118 117 119 23
8 106 107 108 109 117 116 24 119
8 107 120 121 108 116 122 123 24
8 88 89 90 15 107 120 121 108
8 89 91 16 90 120 124 125 121
8 120 124 125 121 122 126 25 123
8 127 128 124 120 129 22 126 122
8 76 13 91 89 127 128 124 120
8 12 76 89 88 114 127 120 107
8 114 127 120 107 21 129 122 116
8 130 131 127 114 132 133 129 21
8 61 68 76 12 130 131 127 114
8 68 71 13 76 131 134 128 127
8 131 134 128 127 133 135 22 129
8 136 137 134 131 138 19 135 133
8 65 10 71 68 136 137 134 131
8 9 65 68 61 139 136 131 130
8 139 136 131 130 18 138 133 132
8 140 139 130 141 142 18 132 143
8 144 9 61 145 140 139 130 141
8 8 144 145 146 147 140 141 148
8 147 140 141 148 17 142 143 149
8 148 141 113 112 149 143 115 20
8 146 145 94 11 148 141 113 112
8 145 61 12 94 141 130 114 113
8 141 130 114 113 143 132 21 115
CELL_TYPES 70
12
12
12
12
12
12
12
12
12
12
12
12
12
12
12
12
12
12
12
12
12
12
12
12
12
12
12
12
12
12
12
12
12
12
12
12
12
12
12
12
12
12
12
12
12
12
12
12
12
12
12
12
12
12
12
12
12
12
12
12
12
12
12
12
12
12
12
12
12
12
CELL_DATA 70
SCALARS material int
LOOKUP_TABLE default
1
1
1
1
1
1
1
1
1
1
1
1
1
1
1
1
1
1
1
1
1
1
1
1
1
1
1
1
1
1
1
1
1
1
1
1
1
1
1
1
1
1
1
1
1
1
1
1
1
1
1
1
1
1
1
1
1
1
1
1
1
1
1
1
1
1
1
1
1
1
