# vtk DataFile Version 3.0
Generated by MFEM
ASCII
DATASET UNSTRUCTURED_GRID
POINTS 197 double
0 -1 -1
1 -1 -1
-1 0 -1
0 0 -1
1 0 -1
-1 1 -1
0 1 -1
1 1 -1
-1 -1 0
0 -1 0
1 -1 0
-1 0 0
0 0 0
1 0 0
-1 1 0
0 1 0
1 1 0
-1 -1 1
0 -1 1
1 -1 1
-1 0 1
0 0 1
1 0 1
-1 1 1
0 1 1
1 1 1
0.125 -1 -1
0.125 -0.875 -1
0 -0.875 -1
0 -1 -0.875
0.125 -1 -0.875
0.125 -0.875 -0.875
0 -0.875 -0.875
0.125 -0.75 -1
0 -0.75 -1
0.125 -0.75 -0.875
0 -0.75 -0.875
0 -0.875 -0.75
0.125 -0.875 -0.75
0.125 -0.75 -0.75
0 -0.75 -0.75
0 -1 -0.75
0.125 -1 -0.75
0.25 -1 -0.875
0.25 -0.875 -0.875
0.25 -1 -0.75
0.25 -0.875 -0.75
0.25 -0.75 -0.875
0.25 -0.75 -0.75
0.25 -0.875 -1
0.25 -0.75 -1
0.25 -1 -1
0.375 -1 -1
0.375 -0.875 -1
0.375 -1 -0.875
0.375 -0.875 -0.875
0.375 -1 -0.75
0.375 -0.875 -0.75
0.5 -1 -0.875
0.5 -0.875 -0.875
0.5 -1 -0.75
0.5 -0.875 -0.75
0.5 -1 -1
0.5 -0.875 -1
0.5 -0.75 -1
0.375 -0.75 -1
0.5 -0.75 -0.875
0.375 -0.75 -0.875
0.5 -0.75 -0.75
0.375 -0.75 -0.75
0.5 -0.5 -1
0.25 -0.5 -1
0.5 -0.5 -0.75
0.25 -0.5 -0.75
0 -0.5 -1
0 -0.5 -0.75
0 -0.75 -0.5
0.25 -0.75 -0.5
0.25 -0.5 -0.5
0 -0.5 -0.5
0.5 -0.75 -0.5
0.5 -0.5 -0.5
0.25 -1 -0.5
0.5 -1 -0.5
0 -1 -0.5
0 -1 -0.25
0.25 -1 -0.25
0.25 -0.75 -0.25
0 -0.75 -0.25
0.25 -0.5 -0.25
0 -0.5 -0.25
0 -0.75 0
0.25 -0.75 0
0.25 -0.5 0
0 -0.5 0
0.25 -1 0
0.5 -1 -0.25
0.5 -0.75 -0.25
0.5 -1 0
0.5 -0.75 0
0.5 -0.5 -0.25
0.5 -0.5 0
1 -1 -0.5
1 -0.5 -0.5
1 -0.5 0
0.75 -1 -0.75
1 -1 -0.75
1 -0.75 -0.75
0.75 -0.75 -0.75
0.75 -1 -0.5
1 -0.75 -0.5
0.75 -0.75 -0.5
0.75 -1 -1
1 -0.75 -1
0.75 -0.75 -1
0.75 -0.5 -0.75
0.75 -0.5 -0.5
0.75 -0.5 -1
1 -0.5 -1
1 -0.5 -0.75
0.5 0 -1
1 0 -0.5
0.5 0 -0.5
0.5 0 0
0 0 -0.5
0.5 0.5 -1
0 0.5 -1
0.5 0.5 -0.5
0 0.5 -0.5
1 0.5 -1
1 0.5 -0.5
0.5 1 -1
1 1 -0.5
0.5 1 -0.5
0 1 -0.5
0 0.5 0
0.5 0.5 0
0.5 1 0
1 0.5 0
-0.5 0 -0.5
-0.5 0.5 -0.5
-0.5 0 0
-0.5 0.5 0
-0.5 0 -1
-0.5 0.5 -1
-1 0.5 -1
-1 0 -0.5
-1 0.5 -0.5
-1 0.5 0
-0.5 1 -0.5
-1 1 -0.5
-0.5 1 0
-0.5 1 -1
-0.5 0.5 0.5
0 0.5 0.5
0 1 0.5
-0.5 1 0.5
-1 0.5 0.5
-1 1 0.5
-1 0 0.5
-0.5 0 0.5
0 0 0.5
-0.5 0 1
0 0.5 1
-0.5 0.5 1
-1 0.5 1
-0.5 1 1
0.5 0.5 0.5
0.5 1 0.5
0.5 0.5 1
0.5 1 1
1 0.5 0.5
1 1 0.5
1 0.5 1
0.5 0 0.5
1 0 0.5
0.5 0 1
0 -0.5 0.5
0.5 -0.5 0.5
0 -0.5 1
0.5 -0.5 1
1 -0.5 0.5
1 -0.5 1
0.5 -1 0.5
1 -1 0.5
0.5 -1 1
0 -1 0.5
-0.5 -1 0.5
-0.5 -0.5 0.5
-0.5 -1 1
-0.5 -0.5 1
-0.5 -1 0
-0.5 -0.5 0
-1 -0.5 0
-1 -1 0.5
-1 -0.5 0.5
-1 -0.5 1
CELLS 91 819
8 0 26 27 28 29 30 31 32
8 28 27 33 34 32 31 35 36
8 32 31 35 36 37 38 39 40
8 29 30 31 32 41 42 38 37
8 30 43 44 31 42 45 46 38
8 31 44 47 35 38 46 48 39
8 27 49 50 33 31 44 47 35
8 26 51 49 27 30 43 44 31
8 51 52 53 49 43 54 55 44
8 43 54 55 44 45 56 57 46
8 54 58 59 55 56 60 61 57
8 52 62 63 53 54 58 59 55
8 53 63 64 65 55 59 66 67
8 55 59 66 67 57 61 68 69
8 44 55 67 47 46 57 69 48
8 49 53 65 50 44 55 67 47
8 50 64 70 71 48 68 72 73
8 34 50 71 74 40 48 73 75
8 40 48 73 75 76 77 78 79
8 48 68 72 73 77 80 81 78
8 45 60 68 48 82 83 80 77
8 41 45 48 40 84 82 77 76
8 84 82 77 76 85 86 87 88
8 76 77 78 79 88 87 89 90
8 88 87 89 90 91 92 93 94
8 85 86 87 88 9 95 92 91
8 86 96 97 87 95 98 99 92
8 87 97 100 89 92 99 101 93
8 77 80 81 78 87 97 100 89
8 82 83 80 77 86 96 97 87
8 83 102 103 81 98 10 104 101
8 105 106 107 108 109 102 110 111
8 112 1 113 114 105 106 107 108
8 62 112 114 64 60 105 108 68
8 60 105 108 68 83 109 111 80
8 68 108 115 72 80 111 116 81
8 64 114 117 70 68 108 115 72
8 114 113 118 117 108 107 119 115
8 108 107 119 115 111 110 103 116
8 70 118 4 120 81 103 121 122
8 81 103 121 122 101 104 13 123
8 79 81 122 124 94 101 123 12
8 74 70 120 3 79 81 122 124
8 3 120 125 126 124 122 127 128
8 120 4 129 125 122 121 130 127
8 125 129 7 131 127 130 132 133
8 126 125 131 6 128 127 133 134
8 128 127 133 134 135 136 137 15
8 127 130 132 133 136 138 16 137
8 122 121 130 127 123 13 138 136
8 124 122 127 128 12 123 136 135
8 139 124 128 140 141 12 135 142
8 143 3 126 144 139 124 128 140
8 2 143 144 145 146 139 140 147
8 146 139 140 147 11 141 142 148
8 147 140 149 150 148 142 151 14
8 145 144 152 5 147 140 149 150
8 144 126 6 152 140 128 134 149
8 140 128 134 149 142 135 15 151
8 142 135 15 151 153 154 155 156
8 148 142 151 14 157 153 156 158
8 11 141 142 148 159 160 153 157
8 141 12 135 142 160 161 154 153
8 160 161 154 153 162 21 163 164
8 159 160 153 157 20 162 164 165
8 157 153 156 158 165 164 166 23
8 153 154 155 156 164 163 24 166
8 154 167 168 155 163 169 170 24
8 135 136 137 15 154 167 168 155
8 136 138 16 137 167 171 172 168
8 167 171 172 168 169 173 25 170
8 174 175 171 167 176 22 173 169
8 123 13 138 136 174 175 171 167
8 12 123 136 135 161 174 167 154
8 161 174 167 154 21 176 169 163
8 177 178 174 161 179 180 176 21
8 94 101 123 12 177 178 174 161
8 101 104 13 123 178 181 175 174
8 178 181 175 174 180 182 22 176
8 183 184 181 178 185 19 182 180
8 98 10 104 101 183 184 181 178
8 9 98 101 94 186 183 178 177
8 186 183 178 177 18 185 180 179
8 187 186 177 188 189 18 179 190
8 191 9 94 192 187 186 177 188
8 8 191 192 193 194 187 188 195
8 194 187 188 195 17 189 190 196
8 195 188 160 159 196 190 162 20
8 193 192 141 11 195 188 160 159
8 192 94 12 141 188 177 161 160
8 188 177 161 160 190 179 21 162
CELL_TYPES 91
12
12
12
12
12
12
12
12
12
12
12
12
12
12
12
12
12
12
12
12
12
12
12
12
12
12
12
12
12
12
12
12
12
12
12
12
12
12
12
12
12
12
12
12
12
12
12
12
12
12
12
12
12
12
12
12
12
12
12
12
12
12
12
12
12
12
12
12
12
12
12
12
12
12
12
12
12
12
12
12
12
12
12
12
12
12
12
12
12
12
12
CELL_DATA 91
SCALARS material int
LOOKUP_TABLE default
1
1
1
1
1
1
1
1
1
1
1
1
1
1
1
1
1
1
1
1
1
1
1
1
1
1
1
1
1
1
1
1
1
1
1
1
1
1
1
1
1
1
1
1
1
1
1
1
1
1
1
1
1
1
1
1
1
1
1
1
1
1
1
1
1
1
1
1
1
1
1
1
1
1
1
1
1
1
1
1
1
1
1
1
1
1
1
1
1
1
1
