# vtk DataFile Version 3.0
Generated by MFEM
ASCII
DATASET UNSTRUCTURED_GRID
POINTS 137 double
0 0 0
1 0 0
0 1 0
1 1 0
0.125 0 0
0.125 0.125 0
0 0.125 0
0.25 0 0
0.25 0.125 0
0.25 0.25 0
0.125 0.25 0
0 0.25 0
0.125 0.375 0
0 0.375 0
0.125 0.5 0
0 0.5 0
0.25 0.375 0
0.25 0.5 0
0.3125 0.25 0
0.3125 0.3125 0
0.25 0.3125 0
0.375 0.25 0
0.375 0.3125 0
0.375 0.375 0
0.3125 0.375 0
0.3125 0.4375 0
0.25 0.4375 0
0.3125 0.5 0
0.375 0.4375 0
0.375 0.5 0
0.4375 0.375 0
0.4375 0.4375 0
0.4375 0.5 0
0.5 0.4375 0
0.5 0.5 0
0.5 0.375 0
0.4375 0.3125 0
0.5 0.3125 0
0.4375 0.25 0
0.5 0.25 0
0.375 0.125 0
0.5 0.125 0
0.375 0 0
0.5 0 0
0.625 0 0
0.625 0.125 0
0.625 0.25 0
0.75 0.125 0
0.75 0.25 0
0.75 0 0
0.875 0 0
0.875 0.125 0
1 0.125 0
1 0.25 0
0.875 0.25 0
0.875 0.375 0
0.75 0.375 0
1 0.375 0
1 0.5 0
0.875 0.5 0
0.75 0.5 0
0.6875 0.4375 0
0.75 0.4375 0
0.6875 0.5 0
0.625 0.4375 0
0.625 0.5 0
0.625 0.375 0
0.6875 0.375 0
0.6875 0.3125 0
0.75 0.3125 0
0.6875 0.25 0
0.625 0.3125 0
0.5625 0.3125 0
0.5625 0.375 0
0.5625 0.25 0
0.5625 0.4375 0
0.5625 0.5 0
0.5625 0.5625 0
0.5 0.5625 0
0.625 0.5625 0
0.625 0.625 0
0.5625 0.625 0
0.5 0.625 0
0.5625 0.6875 0
0.5 0.6875 0
0.5625 0.75 0
0.5 0.75 0
0.625 0.6875 0
0.625 0.75 0
0.6875 0.625 0
0.6875 0.6875 0
0.6875 0.75 0
0.75 0.6875 0
0.75 0.75 0
0.75 0.625 0
0.6875 0.5625 0
0.75 0.5625 0
0.875 0.625 0
1 0.625 0
1 0.75 0
0.875 0.75 0
0.875 0.875 0
0.75 0.875 0
1 0.875 0
0.875 1 0
0.75 1 0
0.625 0.875 0
0.625 1 0
0.5 0.875 0
0.5 1 0
0.375 0.875 0
0.375 1 0
0.25 0.875 0
0.25 1 0
0.25 0.75 0
0.375 0.75 0
0.4375 0.6875 0
0.4375 0.75 0
0.375 0.6875 0
0.375 0.625 0
0.4375 0.625 0
0.4375 0.5625 0
0.375 0.5625 0
0.3125 0.5625 0
0.3125 0.625 0
0.25 0.5625 0
0.25 0.625 0
0.3125 0.6875 0
0.25 0.6875 0
0.3125 0.75 0
0.125 0.625 0
0.125 0.75 0
0 0.625 0
0 0.75 0
0.125 0.875 0
0 0.875 0
0.125 1 0
CELLS 112 560
4 0 4 5 6
4 4 7 8 5
4 5 8 9 10
4 6 5 10 11
4 11 10 12 13
4 13 12 14 15
4 12 16 17 14
4 10 9 16 12
4 9 18 19 20
4 18 21 22 19
4 19 22 23 24
4 20 19 24 16
4 16 24 25 26
4 26 25 27 17
4 25 28 29 27
4 24 23 28 25
4 23 30 31 28
4 28 31 32 29
4 31 33 34 32
4 30 35 33 31
4 36 37 35 30
4 22 36 30 23
4 21 38 36 22
4 38 39 37 36
4 40 41 39 21
4 8 40 21 9
4 7 42 40 8
4 42 43 41 40
4 43 44 45 41
4 41 45 46 39
4 45 47 48 46
4 44 49 47 45
4 49 50 51 47
4 50 1 52 51
4 51 52 53 54
4 47 51 54 48
4 48 54 55 56
4 54 53 57 55
4 55 57 58 59
4 56 55 59 60
4 61 62 60 63
4 64 61 63 65
4 66 67 61 64
4 67 56 62 61
4 68 69 56 67
4 70 48 69 68
4 46 70 68 71
4 71 68 67 66
4 72 71 66 73
4 74 46 71 72
4 39 74 72 37
4 37 72 73 35
4 35 73 75 33
4 73 66 64 75
4 75 64 65 76
4 33 75 76 34
4 34 76 77 78
4 76 65 79 77
4 77 79 80 81
4 78 77 81 82
4 82 81 83 84
4 84 83 85 86
4 83 87 88 85
4 81 80 87 83
4 80 89 90 87
4 87 90 91 88
4 90 92 93 91
4 89 94 92 90
4 95 96 94 89
4 79 95 89 80
4 65 63 95 79
4 63 60 96 95
4 60 59 97 94
4 59 58 98 97
4 97 98 99 100
4 94 97 100 93
4 93 100 101 102
4 100 99 103 101
4 101 103 3 104
4 102 101 104 105
4 106 102 105 107
4 88 93 102 106
4 86 88 106 108
4 108 106 107 109
4 110 108 109 111
4 112 110 111 113
4 114 115 110 112
4 115 86 108 110
4 116 84 86 117
4 118 116 117 115
4 119 120 116 118
4 120 82 84 116
4 121 78 82 120
4 32 34 78 121
4 29 32 121 122
4 122 121 120 119
4 123 122 119 124
4 27 29 122 123
4 17 27 123 125
4 125 123 124 126
4 126 124 127 128
4 124 119 118 127
4 127 118 115 129
4 128 127 129 114
4 130 126 114 131
4 14 17 126 130
4 15 14 130 132
4 132 130 131 133
4 133 131 134 135
4 131 114 112 134
4 134 112 113 136
4 135 134 136 2
CELL_TYPES 112
9
9
9
9
9
9
9
9
9
9
9
9
9
9
9
9
9
9
9
9
9
9
9
9
9
9
9
9
9
9
9
9
9
9
9
9
9
9
9
9
9
9
9
9
9
9
9
9
9
9
9
9
9
9
9
9
9
9
9
9
9
9
9
9
9
9
9
9
9
9
9
9
9
9
9
9
9
9
9
9
9
9
9
9
9
9
9
9
9
9
9
9
9
9
9
9
9
9
9
9
9
9
9
9
9
9
9
9
9
9
9
9
CELL_DATA 112
SCALARS material int
LOOKUP_TABLE default
1
1
1
1
1
1
1
1
1
1
1
1
1
1
1
1
1
1
1
1
1
1
1
1
1
1
1
1
1
1
1
1
1
1
1
1
1
1
1
1
1
1
1
1
1
1
1
1
1
1
1
1
1
1
1
1
1
1
1
1
1
1
1
1
1
1
1
1
1
1
1
1
1
1
1
1
1
1
1
1
1
1
1
1
1
1
1
1
1
1
1
1
1
1
1
1
1
1
1
1
1
1
1
1
1
1
1
1
1
1
1
1
