# vtk DataFile Version 3.0
Generated by MFEM
ASCII
DATASET UNSTRUCTURED_GRID
POINTS 146 double
0 0 0
1 0 0
0 1 0
1 1 0
0.0625 0 0
0.0625 0.0625 0
0 0.0625 0
0.0625 0.125 0
0 0.125 0
0.125 0.0625 0
0.125 0.125 0
0.125 0 0
0.1875 0 0
0.1875 0.0625 0
0.25 0 0
0.25 0.0625 0
0.25 0.125 0
0.1875 0.125 0
0.25 0.25 0
0.125 0.25 0
0 0.25 0
0.125 0.375 0
0 0.375 0
0.125 0.5 0
0 0.5 0
0.25 0.375 0
0.25 0.5 0
0.3125 0.25 0
0.3125 0.3125 0
0.25 0.3125 0
0.375 0.25 0
0.375 0.3125 0
0.375 0.375 0
0.3125 0.375 0
0.3125 0.4375 0
0.25 0.4375 0
0.3125 0.5 0
0.375 0.4375 0
0.375 0.5 0
0.4375 0.375 0
0.4375 0.4375 0
0.4375 0.5 0
0.5 0.4375 0
0.5 0.5 0
0.5 0.375 0
0.4375 0.3125 0
0.5 0.3125 0
0.4375 0.25 0
0.5 0.25 0
0.375 0.125 0
0.5 0.125 0
0.375 0 0
0.5 0 0
0.625 0 0
0.625 0.125 0
0.625 0.25 0
0.75 0.125 0
0.75 0.25 0
0.75 0 0
0.875 0 0
0.875 0.125 0
1 0.125 0
1 0.25 0
0.875 0.25 0
0.875 0.375 0
0.75 0.375 0
1 0.375 0
1 0.5 0
0.875 0.5 0
0.75 0.5 0
0.6875 0.4375 0
0.75 0.4375 0
0.6875 0.5 0
0.625 0.4375 0
0.625 0.5 0
0.625 0.375 0
0.6875 0.375 0
0.6875 0.3125 0
0.75 0.3125 0
0.6875 0.25 0
0.625 0.3125 0
0.5625 0.3125 0
0.5625 0.375 0
0.5625 0.25 0
0.5625 0.4375 0
0.5625 0.5 0
0.5625 0.5625 0
0.5 0.5625 0
0.625 0.5625 0
0.625 0.625 0
0.5625 0.625 0
0.5 0.625 0
0.5625 0.6875 0
0.5 0.6875 0
0.5625 0.75 0
0.5 0.75 0
0.625 0.6875 0
0.625 0.75 0
0.6875 0.625 0
0.6875 0.6875 0
0.6875 0.75 0
0.75 0.6875 0
0.75 0.75 0
0.75 0.625 0
0.6875 0.5625 0
0.75 0.5625 0
0.875 0.625 0
1 0.625 0
1 0.75 0
0.875 0.75 0
0.875 0.875 0
0.75 0.875 0
1 0.875 0
0.875 1 0
0.75 1 0
0.625 0.875 0
0.625 1 0
0.5 0.875 0
0.5 1 0
0.375 0.875 0
0.375 1 0
0.25 0.875 0
0.25 1 0
0.25 0.75 0
0.375 0.75 0
0.4375 0.6875 0
0.4375 0.75 0
0.375 0.6875 0
0.375 0.625 0
0.4375 0.625 0
0.4375 0.5625 0
0.375 0.5625 0
0.3125 0.5625 0
0.3125 0.625 0
0.25 0.5625 0
0.25 0.625 0
0.3125 0.6875 0
0.25 0.6875 0
0.3125 0.75 0
0.125 0.625 0
0.125 0.75 0
0 0.625 0
0 0.75 0
0.125 0.875 0
0 0.875 0
0.125 1 0
CELLS 118 590
4 0 4 5 6
4 6 5 7 8
4 5 9 10 7
4 4 11 9 5
4 11 12 13 9
4 12 14 15 13
4 13 15 16 17
4 9 13 17 10
4 10 16 18 19
4 8 10 19 20
4 20 19 21 22
4 22 21 23 24
4 21 25 26 23
4 19 18 25 21
4 18 27 28 29
4 27 30 31 28
4 28 31 32 33
4 29 28 33 25
4 25 33 34 35
4 35 34 36 26
4 34 37 38 36
4 33 32 37 34
4 32 39 40 37
4 37 40 41 38
4 40 42 43 41
4 39 44 42 40
4 45 46 44 39
4 31 45 39 32
4 30 47 45 31
4 47 48 46 45
4 49 50 48 30
4 16 49 30 18
4 14 51 49 16
4 51 52 50 49
4 52 53 54 50
4 50 54 55 48
4 54 56 57 55
4 53 58 56 54
4 58 59 60 56
4 59 1 61 60
4 60 61 62 63
4 56 60 63 57
4 57 63 64 65
4 63 62 66 64
4 64 66 67 68
4 65 64 68 69
4 70 71 69 72
4 73 70 72 74
4 75 76 70 73
4 76 65 71 70
4 77 78 65 76
4 79 57 78 77
4 55 79 77 80
4 80 77 76 75
4 81 80 75 82
4 83 55 80 81
4 48 83 81 46
4 46 81 82 44
4 44 82 84 42
4 82 75 73 84
4 84 73 74 85
4 42 84 85 43
4 43 85 86 87
4 85 74 88 86
4 86 88 89 90
4 87 86 90 91
4 91 90 92 93
4 93 92 94 95
4 92 96 97 94
4 90 89 96 92
4 89 98 99 96
4 96 99 100 97
4 99 101 102 100
4 98 103 101 99
4 104 105 103 98
4 88 104 98 89
4 74 72 104 88
4 72 69 105 104
4 69 68 106 103
4 68 67 107 106
4 106 107 108 109
4 103 106 109 102
4 102 109 110 111
4 109 108 112 110
4 110 112 3 113
4 111 110 113 114
4 115 111 114 116
4 97 102 111 115
4 95 97 115 117
4 117 115 116 118
4 119 117 118 120
4 121 119 120 122
4 123 124 119 121
4 124 95 117 119
4 125 93 95 126
4 127 125 126 124
4 128 129 125 127
4 129 91 93 125
4 130 87 91 129
4 41 43 87 130
4 38 41 130 131
4 131 130 129 128
4 132 131 128 133
4 36 38 131 132
4 26 36 132 134
4 134 132 133 135
4 135 133 136 137
4 133 128 127 136
4 136 127 124 138
4 137 136 138 123
4 139 135 123 140
4 23 26 135 139
4 24 23 139 141
4 141 139 140 142
4 142 140 143 144
4 140 123 121 143
4 143 121 122 145
4 144 143 145 2
CELL_TYPES 118
9
9
9
9
9
9
9
9
9
9
9
9
9
9
9
9
9
9
9
9
9
9
9
9
9
9
9
9
9
9
9
9
9
9
9
9
9
9
9
9
9
9
9
9
9
9
9
9
9
9
9
9
9
9
9
9
9
9
9
9
9
9
9
9
9
9
9
9
9
9
9
9
9
9
9
9
9
9
9
9
9
9
9
9
9
9
9
9
9
9
9
9
9
9
9
9
9
9
9
9
9
9
9
9
9
9
9
9
9
9
9
9
9
9
9
9
9
9
CELL_DATA 118
SCALARS material int
LOOKUP_TABLE default
1
1
1
1
1
1
1
1
1
1
1
1
1
1
1
1
1
1
1
1
1
1
1
1
1
1
1
1
1
1
1
1
1
1
1
1
1
1
1
1
1
1
1
1
1
1
1
1
1
1
1
1
1
1
1
1
1
1
1
1
1
1
1
1
1
1
1
1
1
1
1
1
1
1
1
1
1
1
1
1
1
1
1
1
1
1
1
1
1
1
1
1
1
1
1
1
1
1
1
1
1
1
1
1
1
1
1
1
1
1
1
1
1
1
1
1
1
1
